 Entering Gaussian System, Link 0=g09
 Input=/Users/DAIKI/workspace/class/System_design/exe/mol_datas/122-39-4.com
 Output=/Users/DAIKI/workspace/class/System_design/exe/mol_datas/122-39-4.log
 Initial command:
 /Users/DAIKI/gaussian/g09/l1.exe "/Users//DAIKI/gaussian/sr_files/Gau-62513.inp" -scrdir="/Users//DAIKI/gaussian/sr_files/"
 Entering Link 1 = /Users/DAIKI/gaussian/g09/l1.exe PID=     62514.
  
 Copyright (c) 1988,1990,1992,1993,1995,1998,2003,2009,2013,
            Gaussian, Inc.  All Rights Reserved.
  
 This is part of the Gaussian(R) 09 program.  It is based on
 the Gaussian(R) 03 system (copyright 2003, Gaussian, Inc.),
 the Gaussian(R) 98 system (copyright 1998, Gaussian, Inc.),
 the Gaussian(R) 94 system (copyright 1995, Gaussian, Inc.),
 the Gaussian 92(TM) system (copyright 1992, Gaussian, Inc.),
 the Gaussian 90(TM) system (copyright 1990, Gaussian, Inc.),
 the Gaussian 88(TM) system (copyright 1988, Gaussian, Inc.),
 the Gaussian 86(TM) system (copyright 1986, Carnegie Mellon
 University), and the Gaussian 82(TM) system (copyright 1983,
 Carnegie Mellon University). Gaussian is a federally registered
 trademark of Gaussian, Inc.
  
 This software contains proprietary and confidential information,
 including trade secrets, belonging to Gaussian, Inc.
  
 This software is provided under written license and may be
 used, copied, transmitted, or stored only in accord with that
 written license.
  
 The following legend is applicable only to US Government
 contracts under FAR:
  
                    RESTRICTED RIGHTS LEGEND
  
 Use, reproduction and disclosure by the US Government is
 subject to restrictions as set forth in subparagraphs (a)
 and (c) of the Commercial Computer Software - Restricted
 Rights clause in FAR 52.227-19.
  
 Gaussian, Inc.
 340 Quinnipiac St., Bldg. 40, Wallingford CT 06492
  
  
 ---------------------------------------------------------------
 Warning -- This program may not be used in any manner that
 competes with the business of Gaussian, Inc. or will provide
 assistance to any competitor of Gaussian, Inc.  The licensee
 of this program is prohibited from giving any competitor of
 Gaussian, Inc. access to this program.  By using this program,
 the user acknowledges that Gaussian, Inc. is engaged in the
 business of creating and licensing software in the field of
 computational chemistry and represents and warrants to the
 licensee that it is not a competitor of Gaussian, Inc. and that
 it will not use this program in any manner prohibited above.
 ---------------------------------------------------------------
  

 Cite this work as:
 Gaussian 09, Revision D.01,
 M. J. Frisch, G. W. Trucks, H. B. Schlegel, G. E. Scuseria, 
 M. A. Robb, J. R. Cheeseman, G. Scalmani, V. Barone, B. Mennucci, 
 G. A. Petersson, H. Nakatsuji, M. Caricato, X. Li, H. P. Hratchian, 
 A. F. Izmaylov, J. Bloino, G. Zheng, J. L. Sonnenberg, M. Hada, 
 M. Ehara, K. Toyota, R. Fukuda, J. Hasegawa, M. Ishida, T. Nakajima, 
 Y. Honda, O. Kitao, H. Nakai, T. Vreven, J. A. Montgomery, Jr., 
 J. E. Peralta, F. Ogliaro, M. Bearpark, J. J. Heyd, E. Brothers, 
 K. N. Kudin, V. N. Staroverov, T. Keith, R. Kobayashi, J. Normand, 
 K. Raghavachari, A. Rendell, J. C. Burant, S. S. Iyengar, J. Tomasi, 
 M. Cossi, N. Rega, J. M. Millam, M. Klene, J. E. Knox, J. B. Cross, 
 V. Bakken, C. Adamo, J. Jaramillo, R. Gomperts, R. E. Stratmann, 
 O. Yazyev, A. J. Austin, R. Cammi, C. Pomelli, J. W. Ochterski, 
 R. L. Martin, K. Morokuma, V. G. Zakrzewski, G. A. Voth, 
 P. Salvador, J. J. Dannenberg, S. Dapprich, A. D. Daniels, 
 O. Farkas, J. B. Foresman, J. V. Ortiz, J. Cioslowski, 
 and D. J. Fox, Gaussian, Inc., Wallingford CT, 2013.
 
 ******************************************
 Gaussian 09:  EM64M-G09RevD.01 24-Apr-2013
                 1-Jun-2016 
 ******************************************
 %chk=122-39-4.chk
 --------------------------------
 # opt dreiding geom=connectivity
 --------------------------------
 1/6=10,10=10,14=-1,18=4000020,19=15,38=1,56=1,57=2,64=1/1,3;
 2/9=110,12=2,17=6,18=5,40=1/2;
 3/5=30,11=9,16=1,25=1,30=1,41=10100000,43=2,71=1/1;
 4/20=9,22=1001,24=3/2;
 7/44=-1/16;
 1/6=10,10=10,14=-1,18=4000020,19=15,64=1/3(2);
 2/9=110/2;
 99//99;
 2/9=110/2;
 3/5=30,11=9,16=1,25=1,30=1,41=10100000,43=2,71=1/1;
 4/16=2,20=9,22=1001,24=3/2;
 7/44=-1/16;
 1/6=10,10=10,14=-1,18=4000020,19=15,64=1/3(-4);
 2/9=110/2;
 99//99;
 -------------------
 c1(Nc2ccccc2)ccccc1
 -------------------
 Symbolic Z-matrix:
 Charge =  0 Multiplicity = 1
 C-C_R                -0.8327   -0.4808    0. 
 N-N_3                -2.4982    0.4808    0. 
 H-H_                 -2.4982    1.4423    0. 
 C-C_R                -3.3309    0.        0. 
 C-C_R                -4.1636    0.4808    0. 
 H-H_                 -4.1636    1.4423    0. 
 C-C_R                -4.9963    0.        0. 
 H-H_                 -5.829     0.4808    0. 
 C-C_R                -4.9963   -0.9615    0. 
 H-H_                 -5.829    -1.4423    0. 
 C-C_R                -4.1636   -1.4423    0. 
 H-H_                 -4.1636   -2.4038    0. 
 C-C_R                -3.3309   -0.9615    0. 
 H-H_                 -2.4982   -1.4423    0. 
 C-C_R                -0.8327   -1.4423    0. 
 H-H_                 -1.6654   -1.9231    0. 
 C-C_R                 0.       -1.9231    0. 
 H-H_                  0.       -2.8846    0. 
 C-C_R                 0.8327   -1.4423    0. 
 H-H_                  1.6654   -1.9231    0. 
 C-C_R                 0.8327   -0.4808    0. 
 H-H_                  1.6654    0.        0. 
 C-C_R                 0.        0.        0. 
 H-H_                  0.        0.9615    0. 
 
 Include all MM classes

 MM sanity checks:
 All charges sum to:                0.00000000
 Charges of atoms sum to:           0.00000000
 MMInit generated parameter data with length LenPar=        3413.

 GradGradGradGradGradGradGradGradGradGradGradGradGradGradGradGradGradGrad
 Berny optimization.
 Initialization pass.
 No Z-matrix variables, so optimization will use Cartesian coordinates.
 Trust Radius=1.00D-01 FncErr=1.00D-07 GrdErr=1.00D-07
 Number of steps in this run=      2 maximum allowed number of steps=      2.
 GradGradGradGradGradGradGradGradGradGradGradGradGradGradGradGradGradGrad

                          Input orientation:                          
 ---------------------------------------------------------------------
 Center     Atomic      Atomic             Coordinates (Angstroms)
 Number     Number       Type             X           Y           Z
 ---------------------------------------------------------------------
      1          6    10061000       -0.832700   -0.480800    0.000000
      2          7    10071003       -2.498200    0.480800    0.000000
      3          1    10011000       -2.498200    1.442300    0.000000
      4          6    10061000       -3.330900    0.000000    0.000000
      5          6    10061000       -4.163600    0.480800    0.000000
      6          1    10011000       -4.163600    1.442300    0.000000
      7          6    10061000       -4.996300    0.000000    0.000000
      8          1    10011000       -5.829000    0.480800    0.000000
      9          6    10061000       -4.996300   -0.961500    0.000000
     10          1    10011000       -5.829000   -1.442300    0.000000
     11          6    10061000       -4.163600   -1.442300    0.000000
     12          1    10011000       -4.163600   -2.403800    0.000000
     13          6    10061000       -3.330900   -0.961500    0.000000
     14          1    10011000       -2.498200   -1.442300    0.000000
     15          6    10061000       -0.832700   -1.442300    0.000000
     16          1    10011000       -1.665400   -1.923100    0.000000
     17          6    10061000        0.000000   -1.923100    0.000000
     18          1    10011000        0.000000   -2.884600    0.000000
     19          6    10061000        0.832700   -1.442300    0.000000
     20          1    10011000        1.665400   -1.923100    0.000000
     21          6    10061000        0.832700   -0.480800    0.000000
     22          1    10011000        1.665400    0.000000    0.000000
     23          6    10061000        0.000000    0.000000    0.000000
     24          1    10011000        0.000000    0.961500    0.000000
 ---------------------------------------------------------------------
                    Distance matrix (angstroms):
                    1          2          3          4          5
     1  C    0.000000
     2  N    1.923165   0.000000
     3  H    2.544053   0.961500   0.000000
     4  C    2.544046   0.961539   1.665418   0.000000
     5  C    3.466925   1.665400   1.923029   0.961539   0.000000
     6  H    3.846194   1.923029   1.665400   1.665418   0.961500
     7  C    4.191269   2.543948   2.884568   1.665400   0.961539
     8  H    5.087995   3.330800   3.466801   2.543948   1.665400
     9  C    4.191257   2.884568   3.466808   1.923029   1.665418
    10  H    5.087976   3.846107   4.406262   2.884568   2.543987
    11  C    3.466897   2.543987   3.330837   1.665418   1.923100
    12  H    3.846144   3.330837   4.191186   2.543943   2.884600
    13  C    2.544027   1.665418   2.543943   0.961500   1.665418
    14  H    1.923115   1.923100   2.884600   1.665418   2.543987
    15  C    0.961500   2.544053   3.330887   2.884655   3.846194
    16  H    1.665418   2.544070   3.466911   2.544053   3.466949
    17  C    1.665418   3.466949   4.191291   3.846194   4.807733
    18  H    2.543943   4.191291   4.996305   4.406338   5.353642
    19  C    1.923029   3.846194   4.406338   4.406336   5.353627
    20  H    2.884568   4.807733   5.353642   5.353627   6.305234
    21  C    1.665400   3.466925   3.846194   4.191269   5.087995
    22  H    2.543948   4.191269   4.406336   4.996300   5.848796
    23  C    0.961539   2.544046   2.884655   3.330900   4.191269
    24  H    1.665418   2.544027   2.544046   3.466897   4.191257
                    6          7          8          9         10
     6  H    0.000000
     7  C    1.665418   0.000000
     8  H    1.923029   0.961539   0.000000
     9  C    2.543943   0.961500   1.665418   0.000000
    10  H    3.330837   1.665418   1.923100   0.961539   0.000000
    11  C    2.884600   1.665418   2.543987   0.961539   1.665400
    12  H    3.846100   2.543943   3.330837   1.665418   1.923029
    13  C    2.543943   1.923029   2.884568   1.665400   2.543948
    14  H    3.330837   2.884568   3.846107   2.543948   3.330800
    15  C    4.406338   4.406336   5.353627   4.191269   4.996300
    16  H    4.191291   3.846194   4.807733   3.466925   4.191269
    17  C    5.353642   5.353627   6.305234   5.087995   5.848796
    18  H    6.004800   5.769223   6.730762   5.353627   6.004787
    19  C    5.769223   6.004787   6.933726   5.848796   6.661700
    20  H    6.730762   6.933726   7.870500   6.730744   7.509807
    21  C    5.353627   5.848796   6.730744   5.848787   6.730730
    22  H    6.004787   6.661700   7.509807   6.730730   7.631924
    23  C    4.406336   4.996300   5.848796   5.087976   6.004787
    24  H    4.191269   5.087976   5.848787   5.353592   6.305196
                   11         12         13         14         15
    11  C    0.000000
    12  H    0.961500   0.000000
    13  C    0.961539   1.665418   0.000000
    14  H    1.665400   1.923029   0.961539   0.000000
    15  C    3.330900   3.466897   2.544046   1.665500   0.000000
    16  H    2.544046   2.544027   1.923165   0.961626   0.961539
    17  C    4.191269   4.191257   3.466925   2.544046   0.961539
    18  H    4.406336   4.191269   3.846194   2.884655   1.665418
    19  C    4.996300   5.087976   4.191269   3.330900   1.665400
    20  H    5.848796   5.848787   5.087995   4.191269   2.543948
    21  C    5.087976   5.353592   4.191257   3.466897   1.923029
    22  H    6.004787   6.305196   5.087976   4.406336   2.884568
    23  C    4.406336   4.807683   3.466897   2.884655   1.665418
    24  H    4.807683   5.353579   3.846144   3.466880   2.543943
                   16         17         18         19         20
    16  H    0.000000
    17  C    1.665400   0.000000
    18  H    1.923029   0.961500   0.000000
    19  C    2.543948   0.961539   1.665418   0.000000
    20  H    3.330800   1.665400   1.923029   0.961539   0.000000
    21  C    2.884568   1.665418   2.543943   0.961500   1.665418
    22  H    3.846107   2.543987   3.330837   1.665418   1.923100
    23  C    2.543987   1.923100   2.884600   1.665418   2.543987
    24  H    3.330837   2.884600   3.846100   2.543943   3.330837
                   21         22         23         24
    21  C    0.000000
    22  H    0.961539   0.000000
    23  C    0.961539   1.665400   0.000000
    24  H    1.665418   1.923029   0.961500   0.000000
 Stoichiometry    C12H11N
 Framework group  CS[SG(C12H11N)]
 Deg. of freedom    45
 Full point group                 CS      NOp   2
 Largest Abelian subgroup         CS      NOp   2
 Largest concise Abelian subgroup C1      NOp   1
                         Standard orientation:                         
 ---------------------------------------------------------------------
 Center     Atomic      Atomic             Coordinates (Angstroms)
 Number     Number       Type             X           Y           Z
 ---------------------------------------------------------------------
      1          6    10061000        0.144194    1.286113    0.000000
      2          7    10071003        1.105794   -0.379387    0.000000
      3          1    10011000        2.067294   -0.379387    0.000000
      4          6    10061000        0.624994   -1.212087    0.000000
      5          6    10061000        1.105794   -2.044787    0.000000
      6          1    10011000        2.067294   -2.044787    0.000000
      7          6    10061000        0.624994   -2.877487    0.000000
      8          1    10011000        1.105794   -3.710187    0.000000
      9          6    10061000       -0.336506   -2.877487    0.000000
     10          1    10011000       -0.817306   -3.710187    0.000000
     11          6    10061000       -0.817306   -2.044787    0.000000
     12          1    10011000       -1.778806   -2.044787    0.000000
     13          6    10061000       -0.336506   -1.212087    0.000000
     14          1    10011000       -0.817306   -0.379387    0.000000
     15          6    10061000       -0.817306    1.286113    0.000000
     16          1    10011000       -1.298106    0.453413    0.000000
     17          6    10061000       -1.298106    2.118813    0.000000
     18          1    10011000       -2.259606    2.118813    0.000000
     19          6    10061000       -0.817306    2.951513    0.000000
     20          1    10011000       -1.298106    3.784213    0.000000
     21          6    10061000        0.144194    2.951513    0.000000
     22          1    10011000        0.624994    3.784213    0.000000
     23          6    10061000        0.624994    2.118813    0.000000
     24          1    10011000        1.586494    2.118813    0.000000
 ---------------------------------------------------------------------
 Rotational constants (GHZ):      4.6715377      0.6492075      0.5699949
 Standard basis: Dummy (5D, 7F)
 There are    24 symmetry adapted cartesian basis functions of A'  symmetry.
 There are     0 symmetry adapted cartesian basis functions of A"  symmetry.
 There are    24 symmetry adapted basis functions of A'  symmetry.
 There are     0 symmetry adapted basis functions of A"  symmetry.
    24 basis functions,    24 primitive gaussians,    24 cartesian basis functions
    18 alpha electrons       18 beta electrons
       nuclear repulsion energy       138.7908247479 Hartrees.
 NAtoms=   24 NActive=   24 NUniq=   24 SFac= 1.00D+00 NAtFMM=   60 NAOKFM=F Big=F
 Integral buffers will be    131072 words long.
 Raffenetti 1 integral format.
 Two-electron integral symmetry is turned on.
 Dreiding calculation of energy and first derivatives.
 NRF= 0 NRA=   0 NVA=  24 HaveQM=F NVQ=       0
 Convergence limit is  0.750E-04 MaxStp= 10000 StMxLn= 3.00D-04 StpMin= 1.00D-06.
 Convergence criteria             0.00011250 0.00007500 0.00045000 0.00030000
  Step  NS  ND Rises OKQ   Scale  Max. Force  RMS Force Max. Disp.  RMS Disp.     Energy   Flag
     1   0   0   F    T  1.00D+00***********48.38357917***********48.38357917   51.3149676 ----
     2   0   0   T    F  2.92D-01***********48.3835791773.8087021814.1333895425984.0458625 ----
     3   0   0   T    F  3.21D-01***********48.3835791723.70330740 4.53886963 2092.8005799 ----
     4   0   0   T    F  3.32D-01***********48.38357917 7.87096511 1.50718564  183.8807294 ----
     5   0   0   T    F  2.50D-01***********48.38357917 1.96955566 0.37714384   67.3190054 ----
     6   0   0   T    F  6.20D-01***********48.38357917 1.22035477 0.23368179 1227.2694645 ----
     7   0   0   F    F -6.23D-01***********48.38357917 0.76050606 0.14562684   11.1262715 ----
     8   0   0   F    F -3.68D-01***********48.38357917 0.27997860 0.05361220    7.2648274 ----
     9   0   0   T    F  3.89D-01***********48.38357917 0.10878876 0.02083161    7.3328680 ----
    10   0   0   F    F -4.07D-02***********48.38357917 0.00442546 0.00084742    7.1933312 ----
    11   0   0   F    F -6.90D-02***********48.38357917 0.00030536 0.00005847    7.1932433 --++
    12   0   0   F    T  1.00D+00 2.64746952 1.06917268 2.64881311 1.06943369    7.1932428 ----
    13   0   0   T    F  6.46D-01 2.64746952 1.06917268 1.71072233 0.69068825************* ----
    14   0   0   T    F  5.93D-01 2.64746952 1.06917268 1.01471360 0.40968119  160.4357163 ----
    15   0   0   F    F -5.45D-01 2.64746952 1.06917268 0.55300074 0.22326891    6.8652876 ----
    16   0   0   F    F -2.59D-03 2.64746952 1.06917268 0.00143039 0.00057751    2.6087648 ----
    17   0   0   F    F -3.93D-01 2.64746952 1.06917268 0.00056267 0.00022717    2.6087596 ---+
    18   0   0   F    T  1.00D+00 0.99016494 0.23427352 0.90038727 0.23997922    2.6087559 ----
    19   0   0   F    F -4.41D-01 0.99016494 0.23427352 0.39713810 0.10584878    1.9600676 ----
    20   0   0   F    F -9.94D-02 0.99016494 0.23427352 0.03949237 0.01052586    1.7371190 ----
    21   0   0   F    F -3.25D-02 0.99016494 0.23427352 0.00128372 0.00034215    1.7342201 ----
    22   0   0   F    T  1.00D+00 0.50609614 0.13927835 0.52554838 0.16884335    1.7342169 ----
    23   0   0   F    F  2.67D-01 0.50609614 0.13927835 0.14017604 0.04503447    0.9864001 ----
    24   0   0   F    F -1.62D-01 0.50609614 0.13927835 0.02264879 0.00727640    0.9637540 ----
    25   0   0   F    T  1.72D+00 0.24067749 0.08985789 0.58600049 0.20660143    0.9628895 ----
    26   0   0   F    F -2.89D-02 0.24067749 0.08985789 0.01692476 0.00596703    0.5028038 ----
    27   0   0   F    F -3.95D-02 0.24067749 0.08985789 0.00066796 0.00023550    0.5024577 ---+
    28   0   0   F    T  2.56D+00 0.18073669 0.05506482 0.51345185 0.20086990    0.5024571 ----
    29   0   0   T    F  4.54D-01 0.18073669 0.05506482 0.23331603 0.09127666    0.5539660 ----
    30   0   0   F    T  2.05D+00 0.09761141 0.03339368 0.25344614 0.09127666    0.3765942 ----
    31   0   0   F    F -3.17D-01 0.09761141 0.03339368 0.08039327 0.02895301    0.3323938 ----
    32   0   0   F    T  1.63D+00 0.10002812 0.02621694 0.20036887 0.06232365    0.3196271 ----
    33   0   0   F    F  1.84D-01 0.10002812 0.02621694 0.03689509 0.01147602    0.2742207 ----
    34   0   0   F    F -1.21D-02 0.10002812 0.02621694 0.00044821 0.00013941    0.2731646 --++
    35   0   0   F    T  1.75D+00 0.06662642 0.02470148 0.23353139 0.07366025    0.2731645 ----
    36   0   0   F    F  4.02D-02 0.06662642 0.02470148 0.00938517 0.00296026    0.2334041 ----
    37   0   0   F    T  1.68D+00 0.08482393 0.02317162 0.19849886 0.07662051    0.2333449 ----
    38   0   0   F    F  2.10D-01 0.08482393 0.02317162 0.04159240 0.01605466    0.1954299 ----
    39   0   0   F    T  2.05D+00 0.05922619 0.02169217 0.25656031 0.09267516    0.1942606 ----
    40   0   0   F    F -1.98D-01 0.05922619 0.02169217 0.05080589 0.01835219    0.1680955 ----
    41   0   0   F    T  2.15D+00 0.05282097 0.01760351 0.22044047 0.07432297    0.1663941 ----
    42   0   0   F    F -2.13D-01 0.05282097 0.01760351 0.04696187 0.01583351    0.1489049 ----
    43   0   0   F    T  1.87D+00 0.04183987 0.01559238 0.21749331 0.05848946    0.1475292 ----
    44   0   0   F    F -4.36D-02 0.04183987 0.01559238 0.00949349 0.00255304    0.1319685 ----
    45   0   0   F    T  2.73D+00 0.03270627 0.01137941 0.23298101 0.05593642    0.1319363 ----
    46   0   0   F    F -4.57D-01 0.03270627 0.01137941 0.10649020 0.02556724    0.1299189 ----
    47   0   0   F    T  1.77D+00 0.02291524 0.00946686 0.13084968 0.03036918    0.1250427 ----
    48   0   0   F    F -1.09D-02 0.02291524 0.00946686 0.00142132 0.00032988    0.1194098 ----
    49   0   0   F    T  1.92D+00 0.02672793 0.00830938 0.12260662 0.03003931    0.1194091 ----
    50   0   0   F    F  3.58D-02 0.02672793 0.00830938 0.00438973 0.00107551    0.1144893 ----
    51   0   0   F    T  2.14D+00 0.02432601 0.00737449 0.11820304 0.03111482    0.1144834 ----
    52   0   0   F    F -2.62D-01 0.02432601 0.00737449 0.03092768 0.00814115    0.1117764 ----
    53   0   0   F    T  1.44D+00 0.02043178 0.00725867 0.08436349 0.02297366    0.1113900 ----
    54   0   0   F    F  7.46D-01 0.02043178 0.00725867 0.06292815 0.01713644    0.1074711 ----
    55   0   0   F    T  2.15D+00 0.02748140 0.00753580 0.13427101 0.04011011    0.1065923 ----
    56   0   0   F    F -1.35D-01 0.02748140 0.00753580 0.01813193 0.00541646    0.1028803 ----
    57   0   0   F    T  1.52D+00 0.02893247 0.00810597 0.11176446 0.03469364    0.1027873 ----
    58   0   0   F    F  2.70D-01 0.02893247 0.00810597 0.03019647 0.00937351    0.0984193 ----
    59   0   0   F    T  2.37D+00 0.02112805 0.00711264 0.14203807 0.04406716    0.0982109 ----
    60   0   0   F    F -7.03D-02 0.02112805 0.00711264 0.00998368 0.00309742    0.0942059 ----
    61   0   0   F    T  1.44D+00 0.02736083 0.00867563 0.13047168 0.04096973    0.0941827 ----
    62   0   0   F    F  3.52D-01 0.02736083 0.00867563 0.04589274 0.01441089    0.0892725 ----
    63   0   0   F    T  2.34D+00 0.02458914 0.00780726 0.18270254 0.05538062    0.0889157 ----
    64   0   0   F    F -1.56D-01 0.02458914 0.00780726 0.02853552 0.00864966    0.0847272 ----
    65   0   0   F    T  2.67D+00 0.02220836 0.00652380 0.15171021 0.04673096    0.0845780 ----
    66   0   0   T    F  4.81D-01 0.02220836 0.00652380 0.07304762 0.02250070    0.0848868 ----
    67   0   0   F    T  2.01D+00 0.01911669 0.00495446 0.07398389 0.02250070    0.0826126 ----
    68   0   0   F    F  7.25D-02 0.01911669 0.00495446 0.00536302 0.00163105    0.0807221 ----
    69   0   0   F    T  2.54D+00 0.01233707 0.00428591 0.07450495 0.02413175    0.0807135 ----
    70   0   0   F    F -3.86D-01 0.01233707 0.00428591 0.02873548 0.00930727    0.0800910 ----
    71   0   0   F    T  2.49D+00 0.01259096 0.00314150 0.04134047 0.01482448    0.0796791 ----
    72   0   0   T    F  4.74D-01 0.01259096 0.00314150 0.01961019 0.00703212    0.0797735 ----
    73   0   0   F    T  2.38D+00 0.00589180 0.00192295 0.02436374 0.00703212    0.0792594 ----
    74   0   0   F    F  5.35D-02 0.00589180 0.00192295 0.00130330 0.00037617    0.0789264 ----
    75   0   0   F    T  1.49D+00 0.00655207 0.00234570 0.03023940 0.00740829    0.0789256 ----
    76   0   0   F    F  1.54D-01 0.00655207 0.00234570 0.00466476 0.00114281    0.0785912 ----
    77   0   0   F    T  2.34D+00 0.00535212 0.00186725 0.03707137 0.00855110    0.0785851 ----
    78   0   0   F    F -2.66D-01 0.00535212 0.00186725 0.00985600 0.00227344    0.0783979 ----
    79   0   0   F    T  2.09D+00 0.00542109 0.00156656 0.02639448 0.00627766    0.0783696 ----
    80   0   0   F    F  1.31D-02 0.00542109 0.00156656 0.00034645 0.00008240    0.0781823 --++
    81   0   0   F    T  1.53D+00 0.00565923 0.00175704 0.02454758 0.00636006    0.0781823 ----
    82   0   0   F    F  8.17D-02 0.00565923 0.00175704 0.00200479 0.00051942    0.0779992 ----
    83   0   0   F    T  2.73D+00 0.00329180 0.00127675 0.01840419 0.00687948    0.0779981 ----
    84   0   0   F    F -2.10D-01 0.00329180 0.00127675 0.00385763 0.00144198    0.0778805 ----
    85   0   0   F    T  1.96D+00 0.00498752 0.00126584 0.01586298 0.00543750    0.0778716 ----
    86   0   0   F    F -2.24D-01 0.00498752 0.00126584 0.00355691 0.00121923    0.0777914 ----
    87   0   0   F    T  1.96D+00 0.00374835 0.00104280 0.01337663 0.00421826    0.0777841 ----
    88   0   0   F    T  2.41D+00 0.00294724 0.00087326 0.01478577 0.00421826    0.0777077 ----
    89   0   0   F    F -3.92D-01 0.00294724 0.00087326 0.00579530 0.00165335    0.0776843 ----
    90   0   0   F    T  2.48D+00 0.00159689 0.00060737 0.00856020 0.00256491    0.0776676 ----
    91   0   0   F    F -3.77D-01 0.00159689 0.00060737 0.00322732 0.00096701    0.0776546 ----
    92   0   0   F    T  1.70D+00 0.00145814 0.00052588 0.00630033 0.00159790    0.0776471 ----
    93   0   0   F    F  4.02D-01 0.00145814 0.00052588 0.00253186 0.00064213    0.0776253 ----
    94   0   0   F    T  2.29D+00 0.00165290 0.00049861 0.00730952 0.00224003    0.0776233 ----
    95   0   0   F    F -4.33D-01 0.00165290 0.00049861 0.00316199 0.00096901    0.0776184 ----
    96   0   0   F    T  2.03D+00 0.00090985 0.00036032 0.00328348 0.00127103    0.0776117 ----
    97   0   0   F    T  2.18D+00 0.00107980 0.00032116 0.00329460 0.00127103    0.0776020 ----
    98   0   0   F    T  1.50D+00 0.00149552 0.00035781 0.00323572 0.00127103    0.0775941 ----
    99   0   0   F    T  2.57D+00 0.00087957 0.00028908 0.00335540 0.00127103    0.0775872 ----
   100   0   0   F    F -1.32D-01 0.00087957 0.00028908 0.00044406 0.00016821    0.0775803 --++
   101   0   0   F    T  1.84D+00 0.00108783 0.00028370 0.00342332 0.00110282    0.0775801 ----
   102   0   0   F    F -1.56D-01 0.00108783 0.00028370 0.00053420 0.00017209    0.0775758 ---+
   103   0   0   F    T  1.70D+00 0.00082561 0.00026006 0.00283183 0.00093073    0.0775756 ----
   104   0   0   F    F  3.20D-01 0.00082561 0.00026006 0.00090660 0.00029797    0.0775705 ---+
   105   0   0   F    T  2.50D+00 0.00079579 0.00023164 0.00361719 0.00122870    0.0775702 ----
   106   0   0   F    F -3.95D-01 0.00079579 0.00023164 0.00142981 0.00048568    0.0775685 ----
   107   0   0   F    T  2.20D+00 0.00061117 0.00017722 0.00187563 0.00074302    0.0775672 ----
   108   0   0   F    F -4.17D-01 0.00061117 0.00017722 0.00078257 0.00031001    0.0775665 ----
   109   0   0   F    T  2.56D+00 0.00033948 0.00010933 0.00121841 0.00043301    0.0775658 ----
   110   0   0   F    T  1.43D+00 0.00049000 0.00013154 0.00134756 0.00043301    0.0775650 ----
   111   0   0   F    F -2.81D-01 0.00049000 0.00013154 0.00037918 0.00012184    0.0775647 --++
   112   0   0   F    T  2.47D+00 0.00038082 0.00011517 0.00084607 0.00031117    0.0775646 ----
   113   0   0   F    F -4.83D-01 0.00038082 0.00011517 0.00040840 0.00015020    0.0775645 --++
   114   0   0   F    T  2.27D+00 0.00021846 0.00006070 0.00055566 0.00016097    0.0775640 -+-+
   115   0   0   F    T  1.00D+00 0.00038956 0.00009220 0.00073334 0.00019610    0.0775639 ---+
   116   0   0   T    T  1.00D+00 0.00062344 0.00012505 0.00062344 0.00012505    0.0775640 ---+
   117   0   0   F    F -4.84D-01 0.00062344 0.00012505 0.00030166 0.00006051    0.0775639 --++
   118   0   0   F    T  1.77D+00 0.00010428 0.00003518 0.00019074 0.00006454    0.0775637 ====
 Energy=    7.756368851E-02 NIter=   0.
 Dipole moment=       0.000000       0.000000       0.000000
 ***** Axes restored to original set *****
 -------------------------------------------------------------------
 Center     Atomic                   Forces (Hartrees/Bohr)
 Number     Number              X              Y              Z
 -------------------------------------------------------------------
      1        6           0.000052785   -0.000040259    0.000000000
      2        7          -0.000002371    0.000046516    0.000000000
      3        1           0.000050096    0.000001474    0.000000000
      4        6          -0.000030551    0.000008763    0.000000000
      5        6          -0.000029359   -0.000064609    0.000000000
      6        1          -0.000037883   -0.000003630    0.000000000
      7        6          -0.000066472    0.000031839    0.000000000
      8        1          -0.000104276    0.000035341    0.000000000
      9        6          -0.000084888   -0.000026612    0.000000000
     10        1          -0.000001681   -0.000013374    0.000000000
     11        6           0.000096799    0.000040120    0.000000000
     12        1          -0.000030918   -0.000040404    0.000000000
     13        6          -0.000090347    0.000050771    0.000000000
     14        1           0.000069256   -0.000011199    0.000000000
     15        6          -0.000000725    0.000036510    0.000000000
     16        1          -0.000019884   -0.000000863    0.000000000
     17        6           0.000000565    0.000015539    0.000000000
     18        1           0.000024424   -0.000003035    0.000000000
     19        6           0.000017014   -0.000005112    0.000000000
     20        1           0.000029322   -0.000007173    0.000000000
     21        6           0.000014706   -0.000041006    0.000000000
     22        1           0.000053035    0.000004804    0.000000000
     23        6           0.000009976    0.000026412    0.000000000
     24        1           0.000081377   -0.000040814    0.000000000
 -------------------------------------------------------------------
 Cartesian Forces:  Max     0.000104276 RMS     0.000035175

 GradGradGradGradGradGradGradGradGradGradGradGradGradGradGradGradGradGrad
 Berny optimization.
 Search for a local minimum.
 Step number   1 out of a maximum of    2
 All quantities printed in internal units (Hartrees-Bohrs-Radians)
 Mixed Optimization -- En-DIIS/RFO-DIIS
 Second derivative matrix not updated -- unit matrix used.
 ITU=  0
 RFO step:  Lambda=-8.90860895D-08 EMin= 1.00000000D+00
 ClnCor:  largest displacement from symmetrization is 4.32D-18 for atom    14.
 Linear search not attempted -- first point.
 ClnCor:  largest displacement from symmetrization is 9.22D-16 for atom    22.
 Variable       Old X    -DE/DX   Delta X   Delta X   Delta X     New X
                                 (Linear)    (Quad)   (Total)
    X1       -1.40143   0.00005   0.00000   0.00005   0.00005  -1.40138
    Y1       -0.74866  -0.00004   0.00000  -0.00004  -0.00004  -0.74870
    Z1        0.00000   0.00000   0.00000   0.00000   0.00000   0.00000
    X2       -3.89627   0.00000   0.00000   0.00000   0.00000  -3.89627
    Y2        0.34297   0.00005   0.00000   0.00005   0.00005   0.34301
    Z2        0.00000   0.00000   0.00000   0.00000   0.00000   0.00000
    X3       -3.78121   0.00005   0.00000   0.00005   0.00005  -3.78116
    Y3        2.28062   0.00000   0.00000   0.00000   0.00000   2.28062
    Z3        0.00000   0.00000   0.00000   0.00000   0.00000   0.00000
    X4       -6.50502  -0.00003   0.00000  -0.00003  -0.00003  -6.50505
    Y4       -0.43239   0.00001   0.00000   0.00001   0.00001  -0.43238
    Z4        0.00000   0.00000   0.00000   0.00000   0.00000   0.00000
    X5       -8.41748  -0.00003   0.00000  -0.00003  -0.00003  -8.41751
    Y5        1.50137  -0.00006   0.00000  -0.00006  -0.00006   1.50131
    Z5        0.00000   0.00000   0.00000   0.00000   0.00000   0.00000
    X6       -7.91789  -0.00004   0.00000  -0.00004  -0.00004  -7.91793
    Y6        3.36859   0.00000   0.00000   0.00000   0.00000   3.36858
    Z6        0.00000   0.00000   0.00000   0.00000   0.00000   0.00000
    X7      -11.00297  -0.00007   0.00000  -0.00007  -0.00007 -11.00304
    Y7        0.92220   0.00003   0.00000   0.00003   0.00003   0.92223
    Z7        0.00000   0.00000   0.00000   0.00000   0.00000   0.00000
    X8      -12.31523  -0.00010   0.00000  -0.00010  -0.00010 -12.31533
    Y8        2.34050   0.00004   0.00000   0.00004   0.00004   2.34054
    Z8        0.00000   0.00000   0.00000   0.00000   0.00000   0.00000
    X9      -11.79280  -0.00008   0.00000  -0.00008  -0.00008 -11.79289
    Y9       -1.61915  -0.00003   0.00000  -0.00003  -0.00003  -1.61918
    Z9        0.00000   0.00000   0.00000   0.00000   0.00000   0.00000
   X10      -13.67620   0.00000   0.00000   0.00000   0.00000 -13.67620
   Y10       -2.05056  -0.00001   0.00000  -0.00001  -0.00001  -2.05057
   Z10        0.00000   0.00000   0.00000   0.00000   0.00000   0.00000
   X11       -9.98465   0.00010   0.00000   0.00010   0.00010  -9.98456
   Y11       -3.54945   0.00004   0.00000   0.00004   0.00004  -3.54941
   Z11        0.00000   0.00000   0.00000   0.00000   0.00000   0.00000
   X12      -10.55384  -0.00003   0.00000  -0.00003  -0.00003 -10.55387
   Y12       -5.39657  -0.00004   0.00000  -0.00004  -0.00004  -5.39661
   Z12        0.00000   0.00000   0.00000   0.00000   0.00000   0.00000
   X13       -7.37476  -0.00009   0.00000  -0.00009  -0.00009  -7.37485
   Y13       -2.95286   0.00005   0.00000   0.00005   0.00005  -2.95280
   Z13        0.00000   0.00000   0.00000   0.00000   0.00000   0.00000
   X14       -6.17274   0.00007   0.00000   0.00007   0.00007  -6.17267
   Y14       -4.43197  -0.00001   0.00000  -0.00001  -0.00001  -4.43199
   Z14        0.00000   0.00000   0.00000   0.00000   0.00000   0.00000
   X15       -0.85025   0.00000   0.00000   0.00000   0.00000  -0.85025
   Y15       -3.39823   0.00004   0.00000   0.00004   0.00004  -3.39820
   Z15        0.00000   0.00000   0.00000   0.00000   0.00000   0.00000
   X16       -2.23075  -0.00002   0.00000  -0.00002  -0.00002  -2.23077
   Y16       -4.71334   0.00000   0.00000   0.00000   0.00000  -4.71334
   Z16        0.00000   0.00000   0.00000   0.00000   0.00000   0.00000
   X17        1.64063   0.00000   0.00000   0.00000   0.00000   1.64063
   Y17       -4.30831   0.00002   0.00000   0.00002   0.00002  -4.30829
   Z17        0.00000   0.00000   0.00000   0.00000   0.00000   0.00000
   X18        1.97674   0.00002   0.00000   0.00002   0.00002   1.97676
   Y18       -6.21189   0.00000   0.00000   0.00000   0.00000  -6.21189
   Z18        0.00000   0.00000   0.00000   0.00000   0.00000   0.00000
   X19        3.68838   0.00002   0.00000   0.00002   0.00002   3.68839
   Y19       -2.60648  -0.00001   0.00000  -0.00001  -0.00001  -2.60649
   Z19        0.00000   0.00000   0.00000   0.00000   0.00000   0.00000
   X20        5.50316   0.00003   0.00000   0.00003   0.00003   5.50319
   Y20       -3.26941  -0.00001   0.00000  -0.00001  -0.00001  -3.26941
   Z20        0.00000   0.00000   0.00000   0.00000   0.00000   0.00000
   X21        3.22170   0.00001   0.00000   0.00001   0.00001   3.22171
   Y21       -0.00378  -0.00004   0.00000  -0.00004  -0.00004  -0.00382
   Z21        0.00000   0.00000   0.00000   0.00000   0.00000   0.00000
   X22        4.69860   0.00005   0.00000   0.00005   0.00005   4.69865
   Y22        1.24238   0.00000   0.00000   0.00000   0.00000   1.24239
   Z22        0.00000   0.00000   0.00000   0.00000   0.00000   0.00000
   X23        0.70545   0.00001   0.00000   0.00001   0.00001   0.70546
   Y23        0.89872   0.00003   0.00000   0.00003   0.00003   0.89875
   Z23        0.00000   0.00000   0.00000   0.00000   0.00000   0.00000
   X24        0.44831   0.00008   0.00000   0.00008   0.00008   0.44840
   Y24        2.81464  -0.00004   0.00000  -0.00004  -0.00004   2.81459
   Z24        0.00000   0.00000   0.00000   0.00000   0.00000   0.00000
         Item               Value     Threshold  Converged?
 Maximum Force            0.000104     0.000450     YES
 RMS     Force            0.000035     0.000300     YES
 Maximum Displacement     0.000104     0.001800     YES
 RMS     Displacement     0.000035     0.001200     YES
 Predicted change in Energy=-4.454304D-08
 Optimization completed.
    -- Stationary point found.
 GradGradGradGradGradGradGradGradGradGradGradGradGradGradGradGradGradGrad

                          Input orientation:                          
 ---------------------------------------------------------------------
 Center     Atomic      Atomic             Coordinates (Angstroms)
 Number     Number       Type             X           Y           Z
 ---------------------------------------------------------------------
      1          6    10061000       -0.741604   -0.396175    0.000000
      2          7    10071003       -2.061817    0.181490    0.000000
      3          1    10011000       -2.000929    1.206850    0.000000
      4          6    10061000       -3.442309   -0.228811    0.000000
      5          6    10061000       -4.454341    0.794492    0.000000
      6          1    10011000       -4.189967    1.782580    0.000000
      7          6    10061000       -5.822521    0.488008    0.000000
      8          1    10011000       -6.516939    1.238541    0.000000
      9          6    10061000       -6.240483   -0.856820    0.000000
     10          1    10011000       -7.237133   -1.085108    0.000000
     11          6    10061000       -5.283651   -1.878289    0.000000
     12          1    10011000       -5.584851   -2.855740    0.000000
     13          6    10061000       -3.902554   -1.562584    0.000000
     14          1    10011000       -3.266472   -2.345300    0.000000
     15          6    10061000       -0.449934   -1.798267    0.000000
     16          1    10011000       -1.180464   -2.494191    0.000000
     17          6    10061000        0.868183   -2.279859    0.000000
     18          1    10011000        1.046044   -3.287192    0.000000
     19          6    10061000        1.951805   -1.379292    0.000000
     20          1    10011000        2.912149   -1.730096    0.000000
     21          6    10061000        1.704850   -0.002002    0.000000
     22          1    10011000        2.486392    0.657440    0.000000
     23          6    10061000        0.373308    0.475582    0.000000
     24          1    10011000        0.237237    1.489441    0.000000
 ---------------------------------------------------------------------
                    Distance matrix (angstroms):
                    1          2          3          4          5
     1  C    0.000000
     2  N    1.441062   0.000000
     3  H    2.038525   1.027166   0.000000
     4  C    2.705885   1.440175   2.034379   0.000000
     5  C    3.898987   2.469806   2.487824   1.439221   0.000000
     6  H    4.078992   2.663177   2.263483   2.145853   1.022845
     7  C    5.157276   3.773174   3.888612   2.485807   1.402087
     8  H    6.002232   4.578807   4.516122   3.406828   2.109856
     9  C    5.518139   4.305733   4.715141   2.867782   2.432516
    10  H    6.531961   5.328054   5.715846   3.890236   3.358098
    11  C    4.777745   3.823991   4.504925   2.472109   2.798484
    12  H    5.431988   4.651509   5.417484   3.389874   3.821289
    13  C    3.369290   2.535766   3.359456   1.410949   2.420801
    14  H    3.189678   2.799261   3.770858   2.123781   3.356981
    15  C    1.432109   2.552961   3.381762   3.378980   4.770501
    16  H    2.143425   2.817100   3.790892   3.201232   4.640442
    17  C    2.477838   3.826636   4.515411   4.773587   6.146616
    18  H    3.399068   4.657312   5.429590   5.431298   6.849407
    19  C    2.867224   4.306415   4.723583   5.515440   6.764913
    20  H    3.889635   5.328649   5.723983   6.529395   7.787087
    21  C    2.478006   3.771134   3.897964   5.152154   6.210478
    22  H    3.395595   4.573045   4.520830   5.994575   6.942086
    23  C    1.415271   2.452820   2.484301   3.880091   4.838171
    24  H    2.124542   2.645068   2.255936   4.060966   4.742769
                    6          7          8          9         10
     6  H    0.000000
     7  C    2.083543   0.000000
     8  H    2.389724   1.022505   0.000000
     9  C    3.342311   1.408280   2.113520   0.000000
    10  H    4.184358   2.115613   2.432699   1.022461   0.000000
    11  C    3.820747   2.426879   3.351959   1.399617   2.108370
    12  H    4.843523   3.352184   4.199039   2.103696   2.421812
    13  C    3.357488   2.809128   3.831620   2.442133   3.368590
    14  H    4.229921   3.815890   4.838331   3.325705   4.165840
    15  C    5.177868   5.838814   6.784598   5.866582   6.824563
    16  H    5.229520   5.517445   6.512392   5.318343   6.218420
    17  C    6.487549   7.240622   8.180414   7.249701   8.192897
    18  H    7.288236   7.837685   8.813681   7.681157   8.570891
    19  C    6.907880   7.995433   8.864123   8.208932   9.193646
    20  H    7.923317   9.011906   9.885369   9.194198  10.169756
    21  C    6.159026   7.543303   8.314853   7.991185   9.007340
    22  H    6.770503   8.310641   9.022065   8.857276   9.878431
    23  C    4.746759   6.195842   6.932360   6.746668   7.768820
    24  H    4.436899   6.141949   6.758835   6.889543   7.905347
                   11         12         13         14         15
    11  C    0.000000
    12  H    1.022806   0.000000
    13  C    1.416721   2.121880   0.000000
    14  H    2.070534   2.373906   1.008585   0.000000
    15  C    4.834380   5.242674   3.460655   2.869170   0.000000
    16  H    4.149154   4.419202   2.877093   2.091315   1.008952
    17  C    6.164927   6.478679   4.824356   4.135173   1.403339
    18  H    6.484600   6.644916   5.240505   4.414176   2.110650
    19  C    7.252643   7.679914   5.857228   5.306938   2.438009
    20  H    8.197140   8.571236   6.816762   6.209174   3.362774
    21  C    7.235994   7.828382   5.820516   5.495916   2.805292
    22  H    8.173341   8.802693   6.763663   6.489368   3.827859
    23  C    6.127145   6.826227   4.736784   4.604930   2.418289
    24  H    6.466979   7.264799   5.143222   5.194345   3.358754
                   16         17         18         19         20
    16  H    0.000000
    17  C    2.059828   0.000000
    18  H    2.363511   1.022914   0.000000
    19  C    3.324772   1.408992   2.111986   0.000000
    20  H    4.163331   2.116610   2.430411   1.022411   0.000000
    21  C    3.812616   2.426653   3.350596   1.399255   2.108051
    22  H    4.835143   3.353554   4.199371   2.105721   2.425200
    23  C    3.351681   2.799528   3.822439   2.435613   3.363143
    24  H    4.228380   3.821742   4.844624   3.342061   4.185758
                   21         22         23         24
    21  C    0.000000
    22  H    1.022581   0.000000
    23  C    1.414599   2.120895   0.000000
    24  H    2.092436   2.398108   1.022949   0.000000
 Stoichiometry    C12H11N
 Framework group  CS[SG(C12H11N)]
 Deg. of freedom    45
 Full point group                 CS      NOp   2
 Largest Abelian subgroup         CS      NOp   2
 Largest concise Abelian subgroup C1      NOp   1
                         Standard orientation:                         
 ---------------------------------------------------------------------
 Center     Atomic      Atomic             Coordinates (Angstroms)
 Number     Number       Type             X           Y           Z
 ---------------------------------------------------------------------
      1          6    10061000       -1.354735    0.335229    0.000000
      2          7    10071003        0.000000    0.826506    0.000000
      3          1    10011000        0.005398    1.853658    0.000000
      4          6    10061000        1.351141    0.327987    0.000000
      5          6    10061000        2.427091    1.283857    0.000000
      6          1    10011000        2.227023    2.286945    0.000000
      7          6    10061000        3.772645    0.889732    0.000000
      8          1    10011000        4.514043    1.593895    0.000000
      9          6    10061000        4.102963   -0.479261    0.000000
     10          1    10011000        5.082806   -0.771381    0.000000
     11          6    10061000        3.082217   -1.436864    0.000000
     12          1    10011000        3.319720   -2.431713    0.000000
     13          6    10061000        1.724368   -1.032704    0.000000
     14          1    10011000        1.039108   -1.772747    0.000000
     15          6    10061000       -1.736265   -1.045122    0.000000
     16          1    10011000       -1.052160   -1.786731    0.000000
     17          6    10061000       -3.082709   -1.440661    0.000000
     18          1    10011000       -3.325195   -2.434418    0.000000
     19          6    10061000       -4.105966   -0.472052    0.000000
     20          1    10011000       -5.086944   -0.760160    0.000000
     21          6    10061000       -3.770658    0.886434    0.000000
     22          1    10011000       -4.508022    1.594929    0.000000
     23          6    10061000       -2.411076    1.277108    0.000000
     24          1    10011000       -2.209871    2.280074    0.000000
 ---------------------------------------------------------------------
 Rotational constants (GHZ):      2.6585343      0.3722837      0.3265551
 1\1\GINC-MIYAZAKIDAIKI-NO-MACBOOK-AIR\FOpt\RDreiding\ZDO\C12H11N1\_ICO
 NSERVICES\01-Jun-2016\0\\# opt dreiding geom=connectivity\\c1(Nc2ccccc
 2)ccccc1\\0,1\C,-0.7416044812,-0.3961747936,0.\N,-2.0618172552,0.18149
 02372,0.\H,-2.000928695,1.2068498031,0.\C,-3.4423087138,-0.2288105655,
 0.\C,-4.4543409096,0.7944921031,0.\H,-4.1899669378,1.782580062,0.\C,-5
 .8225209034,0.4880078577,0.\H,-6.5169392852,1.2385412189,0.\C,-6.24048
 28086,-0.8568195654,0.\H,-7.2371325605,-1.085107688,0.\C,-5.2836512537
 ,-1.878289127,0.\H,-5.5848511083,-2.855739788,0.\C,-3.9025542895,-1.56
 25838276,0.\H,-3.2664723533,-2.3452997688,0.\C,-0.449933601,-1.7982673
 428,0.\H,-1.1804640922,-2.494190819,0.\C,0.8681827723,-2.2798588221,0.
 \H,1.0460435018,-3.2871915005,0.\C,1.9518051745,-1.379292356,0.\H,2.91
 21492934,-1.7300957568,0.\C,1.704850323,-0.0020022587,0.\H,2.486392308
 1,0.6574395067,0.\C,0.3733084239,0.4755824732,0.\H,0.2372374801,1.4894
 407085,0.\\Version=EM64M-G09RevD.01\HF=0.0775637\RMSD=0.000e+00\RMSF=3
 .518e-05\Dipole=0.,0.,0.\PG=CS [SG(C12H11N1)]\\@


 EXPERIENCE IS THE FRUIT OF THE TREE OF ERRORS.
 Job cpu time:       0 days  0 hours  0 minutes  0.6 seconds.
 File lengths (MBytes):  RWF=      5 Int=      0 D2E=      0 Chk=      1 Scr=      1
 Normal termination of Gaussian 09 at Wed Jun  1 15:42:10 2016.
